Title: RC ac lt
Date: today
Plotname: AC Analysis
Flags: real
No. Variables: 3
No. Points: 3
Variables:
	0	F	frequency
	1	V(out)	voltage
	2	I(R1)	current
Values:
0	10	0.1005	-1.005e-4
1	100	0.0102	-1.02e-5
2	1000	0.0011	-1.1e-6
