Title: RC ac ng
Date: today
Plotname: AC Analysis
Flags: real
No. Variables: 3
No. Points: 3
Variables:
	0	frequency	frequency
	1	v(out)	voltage
	2	i(R1)	current
Values:
0	10	0.1	-1e-4
1	100	0.01	-1e-5
2	1000	0.001	-1e-6
