Title: RC transient ng
Date: today
Plotname: Transient Analysis
Flags: real
No. Variables: 3
No. Points: 3
Variables:
	0	time	time
	1	v(out)	voltage
	2	i(R1)	current
Values:
0	0	0	0
1	1e-3	0.632	-0.000632
2	2e-3	0.865	-0.000865
